VARIABLES= "X","Y","T"
ZONE t="BLOCK1", J=41,I=41,F= POINT 

0.000000 	 0.000000 	 1.000000 
0.025000 	 0.000000 	 1.000000 
0.050000 	 0.000000 	 1.000000 
0.075000 	 0.000000 	 1.000000 
0.100000 	 0.000000 	 1.000000 
0.125000 	 0.000000 	 1.000000 
0.150000 	 0.000000 	 1.000000 
0.175000 	 0.000000 	 1.000000 
0.200000 	 0.000000 	 1.000000 
0.225000 	 0.000000 	 1.000000 
0.250000 	 0.000000 	 1.000000 
0.275000 	 0.000000 	 1.000000 
0.300000 	 0.000000 	 1.000000 
0.325000 	 0.000000 	 1.000000 
0.350000 	 0.000000 	 1.000000 
0.375000 	 0.000000 	 1.000000 
0.400000 	 0.000000 	 1.000000 
0.425000 	 0.000000 	 1.000000 
0.450000 	 0.000000 	 1.000000 
0.475000 	 0.000000 	 1.000000 
0.500000 	 0.000000 	 1.000000 
0.525000 	 0.000000 	 1.000000 
0.550000 	 0.000000 	 1.000000 
0.575000 	 0.000000 	 1.000000 
0.600000 	 0.000000 	 1.000000 
0.625000 	 0.000000 	 1.000000 
0.650000 	 0.000000 	 1.000000 
0.675000 	 0.000000 	 1.000000 
0.700000 	 0.000000 	 1.000000 
0.725000 	 0.000000 	 1.000000 
0.750000 	 0.000000 	 1.000000 
0.775000 	 0.000000 	 1.000000 
0.800000 	 0.000000 	 1.000000 
0.825000 	 0.000000 	 1.000000 
0.850000 	 0.000000 	 1.000000 
0.875000 	 0.000000 	 1.000000 
0.900000 	 0.000000 	 1.000000 
0.925000 	 0.000000 	 1.000000 
0.950000 	 0.000000 	 1.000000 
0.975000 	 0.000000 	 1.000000 
1.000000 	 0.000000 	 1.000000 
0.000000 	 0.025000 	 0.801692 
0.025000 	 0.025000 	 0.801034 
0.050000 	 0.025000 	 0.830699 
0.075000 	 0.025000 	 0.858383 
0.100000 	 0.025000 	 0.879821 
0.125000 	 0.025000 	 0.895931 
0.150000 	 0.025000 	 0.908124 
0.175000 	 0.025000 	 0.917502 
0.200000 	 0.025000 	 0.924835 
0.225000 	 0.025000 	 0.930649 
0.250000 	 0.025000 	 0.935309 
0.275000 	 0.025000 	 0.939069 
0.300000 	 0.025000 	 0.942111 
0.325000 	 0.025000 	 0.944566 
0.350000 	 0.025000 	 0.946532 
0.375000 	 0.025000 	 0.948078 
0.400000 	 0.025000 	 0.949257 
0.425000 	 0.025000 	 0.950107 
0.450000 	 0.025000 	 0.950653 
0.475000 	 0.025000 	 0.950912 
0.500000 	 0.025000 	 0.950889 
0.525000 	 0.025000 	 0.950584 
0.550000 	 0.025000 	 0.949988 
0.575000 	 0.025000 	 0.949083 
0.600000 	 0.025000 	 0.947839 
0.625000 	 0.025000 	 0.946215 
0.650000 	 0.025000 	 0.944153 
0.675000 	 0.025000 	 0.941573 
0.700000 	 0.025000 	 0.938365 
0.725000 	 0.025000 	 0.934377 
0.750000 	 0.025000 	 0.929392 
0.775000 	 0.025000 	 0.923092 
0.800000 	 0.025000 	 0.915003 
0.825000 	 0.025000 	 0.904374 
0.850000 	 0.025000 	 0.889963 
0.875000 	 0.025000 	 0.869557 
0.900000 	 0.025000 	 0.838865 
0.925000 	 0.025000 	 0.788640 
0.950000 	 0.025000 	 0.696343 
0.975000 	 0.025000 	 0.499346 
1.000000 	 0.025000 	 0.000000 
0.000000 	 0.050000 	 0.405733 
0.025000 	 0.050000 	 0.571745 
0.050000 	 0.050000 	 0.663380 
0.075000 	 0.050000 	 0.723011 
0.100000 	 0.050000 	 0.764971 
0.125000 	 0.050000 	 0.795780 
0.150000 	 0.050000 	 0.819062 
0.175000 	 0.050000 	 0.837049 
0.200000 	 0.050000 	 0.851188 
0.225000 	 0.050000 	 0.862454 
0.250000 	 0.050000 	 0.871519 
0.275000 	 0.050000 	 0.878857 
0.300000 	 0.050000 	 0.884808 
0.325000 	 0.050000 	 0.889622 
0.350000 	 0.050000 	 0.893482 
0.375000 	 0.050000 	 0.896523 
0.400000 	 0.050000 	 0.898845 
0.425000 	 0.050000 	 0.900519 
0.450000 	 0.050000 	 0.901595 
0.475000 	 0.050000 	 0.902104 
0.500000 	 0.050000 	 0.902060 
0.525000 	 0.050000 	 0.901460 
0.550000 	 0.050000 	 0.900287 
0.575000 	 0.050000 	 0.898505 
0.600000 	 0.050000 	 0.896059 
0.625000 	 0.050000 	 0.892869 
0.650000 	 0.050000 	 0.888824 
0.675000 	 0.050000 	 0.883774 
0.700000 	 0.050000 	 0.877512 
0.725000 	 0.050000 	 0.869753 
0.750000 	 0.050000 	 0.860097 
0.775000 	 0.050000 	 0.847974 
0.800000 	 0.050000 	 0.832544 
0.825000 	 0.050000 	 0.812531 
0.850000 	 0.050000 	 0.785921 
0.875000 	 0.050000 	 0.749400 
0.900000 	 0.050000 	 0.697265 
0.925000 	 0.050000 	 0.619351 
0.950000 	 0.050000 	 0.497384 
0.975000 	 0.050000 	 0.301042 
1.000000 	 0.050000 	 0.000000 
0.000000 	 0.075000 	 0.249497 
0.025000 	 0.075000 	 0.416832 
0.050000 	 0.075000 	 0.528064 
0.075000 	 0.075000 	 0.605312 
0.100000 	 0.075000 	 0.661271 
0.125000 	 0.075000 	 0.703156 
0.150000 	 0.075000 	 0.735298 
0.175000 	 0.075000 	 0.760444 
0.200000 	 0.075000 	 0.780415 
0.225000 	 0.075000 	 0.796460 
0.250000 	 0.075000 	 0.809456 
0.275000 	 0.075000 	 0.820031 
0.300000 	 0.075000 	 0.828644 
0.325000 	 0.075000 	 0.835634 
0.350000 	 0.075000 	 0.841253 
0.375000 	 0.075000 	 0.845689 
0.400000 	 0.075000 	 0.849081 
0.425000 	 0.075000 	 0.851530 
0.450000 	 0.075000 	 0.853105 
0.475000 	 0.075000 	 0.853851 
0.500000 	 0.075000 	 0.853787 
0.525000 	 0.075000 	 0.852910 
0.550000 	 0.075000 	 0.851195 
0.575000 	 0.075000 	 0.848592 
0.600000 	 0.075000 	 0.845023 
0.625000 	 0.075000 	 0.840377 
0.650000 	 0.075000 	 0.834501 
0.675000 	 0.075000 	 0.827188 
0.700000 	 0.075000 	 0.818156 
0.725000 	 0.075000 	 0.807025 
0.750000 	 0.075000 	 0.793271 
0.775000 	 0.075000 	 0.776164 
0.800000 	 0.075000 	 0.754669 
0.825000 	 0.075000 	 0.727285 
0.850000 	 0.075000 	 0.691792 
0.875000 	 0.075000 	 0.644856 
0.900000 	 0.075000 	 0.581444 
0.925000 	 0.075000 	 0.494115 
0.950000 	 0.075000 	 0.372802 
0.975000 	 0.075000 	 0.207437 
1.000000 	 0.075000 	 0.000000 
0.000000 	 0.100000 	 0.175422 
0.025000 	 0.100000 	 0.318021 
0.050000 	 0.100000 	 0.426734 
0.075000 	 0.100000 	 0.508903 
0.100000 	 0.100000 	 0.571645 
0.125000 	 0.100000 	 0.620276 
0.150000 	 0.100000 	 0.658529 
0.175000 	 0.100000 	 0.689013 
0.200000 	 0.100000 	 0.713570 
0.225000 	 0.100000 	 0.733517 
0.250000 	 0.100000 	 0.749815 
0.275000 	 0.100000 	 0.763168 
0.300000 	 0.100000 	 0.774104 
0.325000 	 0.100000 	 0.783017 
0.350000 	 0.100000 	 0.790208 
0.375000 	 0.100000 	 0.795899 
0.400000 	 0.100000 	 0.800261 
0.425000 	 0.100000 	 0.803414 
0.450000 	 0.100000 	 0.805446 
0.475000 	 0.100000 	 0.806409 
0.500000 	 0.100000 	 0.806328 
0.525000 	 0.100000 	 0.805199 
0.550000 	 0.100000 	 0.802992 
0.575000 	 0.100000 	 0.799645 
0.600000 	 0.100000 	 0.795065 
0.625000 	 0.100000 	 0.789117 
0.650000 	 0.100000 	 0.781617 
0.675000 	 0.100000 	 0.772321 
0.700000 	 0.100000 	 0.760900 
0.725000 	 0.100000 	 0.746921 
0.750000 	 0.100000 	 0.729798 
0.775000 	 0.100000 	 0.708744 
0.800000 	 0.100000 	 0.682685 
0.825000 	 0.100000 	 0.650148 
0.850000 	 0.100000 	 0.609105 
0.875000 	 0.100000 	 0.556790 
0.900000 	 0.100000 	 0.489540 
0.925000 	 0.100000 	 0.402864 
0.950000 	 0.100000 	 0.292273 
0.975000 	 0.100000 	 0.155903 
1.000000 	 0.100000 	 0.000000 
0.000000 	 0.125000 	 0.134170 
0.025000 	 0.125000 	 0.253097 
0.050000 	 0.125000 	 0.351949 
0.075000 	 0.125000 	 0.431921 
0.100000 	 0.125000 	 0.496132 
0.125000 	 0.125000 	 0.547774 
0.150000 	 0.125000 	 0.589530 
0.175000 	 0.125000 	 0.623512 
0.200000 	 0.125000 	 0.651334 
0.225000 	 0.125000 	 0.674226 
0.250000 	 0.125000 	 0.693118 
0.275000 	 0.125000 	 0.708724 
0.300000 	 0.125000 	 0.721587 
0.325000 	 0.125000 	 0.732126 
0.350000 	 0.125000 	 0.740662 
0.375000 	 0.125000 	 0.747441 
0.400000 	 0.125000 	 0.752649 
0.425000 	 0.125000 	 0.756423 
0.450000 	 0.125000 	 0.758857 
0.475000 	 0.125000 	 0.760013 
0.500000 	 0.125000 	 0.759918 
0.525000 	 0.125000 	 0.758568 
0.550000 	 0.125000 	 0.755930 
0.575000 	 0.125000 	 0.751934 
0.600000 	 0.125000 	 0.746476 
0.625000 	 0.125000 	 0.739409 
0.650000 	 0.125000 	 0.730531 
0.675000 	 0.125000 	 0.719578 
0.700000 	 0.125000 	 0.706205 
0.725000 	 0.125000 	 0.689960 
0.750000 	 0.125000 	 0.670257 
0.775000 	 0.125000 	 0.646329 
0.800000 	 0.125000 	 0.617179 
0.825000 	 0.125000 	 0.581516 
0.850000 	 0.125000 	 0.537691 
0.875000 	 0.125000 	 0.483660 
0.900000 	 0.125000 	 0.417061 
0.925000 	 0.125000 	 0.335529 
0.950000 	 0.125000 	 0.237521 
0.975000 	 0.125000 	 0.123903 
1.000000 	 0.125000 	 0.000000 
0.000000 	 0.150000 	 0.108160 
0.025000 	 0.150000 	 0.208249 
0.050000 	 0.150000 	 0.296043 
0.075000 	 0.150000 	 0.370699 
0.100000 	 0.150000 	 0.433190 
0.125000 	 0.150000 	 0.485157 
0.150000 	 0.150000 	 0.528307 
0.175000 	 0.150000 	 0.564170 
0.200000 	 0.150000 	 0.594032 
0.225000 	 0.150000 	 0.618933 
0.250000 	 0.150000 	 0.639710 
0.275000 	 0.150000 	 0.657023 
0.300000 	 0.150000 	 0.671395 
0.325000 	 0.150000 	 0.683238 
0.350000 	 0.150000 	 0.692875 
0.375000 	 0.150000 	 0.700557 
0.400000 	 0.150000 	 0.706474 
0.425000 	 0.150000 	 0.710771 
0.450000 	 0.150000 	 0.713549 
0.475000 	 0.150000 	 0.714870 
0.500000 	 0.150000 	 0.714764 
0.525000 	 0.150000 	 0.713228 
0.550000 	 0.150000 	 0.710226 
0.575000 	 0.150000 	 0.705686 
0.600000 	 0.150000 	 0.699499 
0.625000 	 0.150000 	 0.691512 
0.650000 	 0.150000 	 0.681521 
0.675000 	 0.150000 	 0.669258 
0.700000 	 0.150000 	 0.654383 
0.725000 	 0.150000 	 0.636460 
0.750000 	 0.150000 	 0.614941 
0.775000 	 0.150000 	 0.589136 
0.800000 	 0.150000 	 0.558187 
0.825000 	 0.150000 	 0.521049 
0.850000 	 0.150000 	 0.476482 
0.875000 	 0.150000 	 0.423100 
0.900000 	 0.150000 	 0.359517 
0.925000 	 0.150000 	 0.284668 
0.950000 	 0.150000 	 0.198381 
0.975000 	 0.150000 	 0.102187 
1.000000 	 0.150000 	 0.000000 
0.000000 	 0.175000 	 0.090221 
0.025000 	 0.175000 	 0.175695 
0.050000 	 0.175000 	 0.253277 
0.075000 	 0.175000 	 0.321643 
0.100000 	 0.175000 	 0.380774 
0.125000 	 0.175000 	 0.431358 
0.150000 	 0.175000 	 0.474371 
0.175000 	 0.175000 	 0.510833 
0.200000 	 0.175000 	 0.541690 
0.225000 	 0.175000 	 0.567768 
0.250000 	 0.175000 	 0.589767 
0.275000 	 0.175000 	 0.608265 
0.300000 	 0.175000 	 0.623734 
0.325000 	 0.175000 	 0.636559 
0.350000 	 0.175000 	 0.647046 
0.375000 	 0.175000 	 0.655437 
0.400000 	 0.175000 	 0.661922 
0.425000 	 0.175000 	 0.666642 
0.450000 	 0.175000 	 0.669698 
0.475000 	 0.175000 	 0.671155 
0.500000 	 0.175000 	 0.671042 
0.525000 	 0.175000 	 0.669356 
0.550000 	 0.175000 	 0.666062 
0.575000 	 0.175000 	 0.661087 
0.600000 	 0.175000 	 0.654325 
0.625000 	 0.175000 	 0.645623 
0.650000 	 0.175000 	 0.634783 
0.675000 	 0.175000 	 0.621552 
0.700000 	 0.175000 	 0.605609 
0.725000 	 0.175000 	 0.586558 
0.750000 	 0.175000 	 0.563914 
0.775000 	 0.175000 	 0.537088 
0.800000 	 0.175000 	 0.505387 
0.825000 	 0.175000 	 0.468011 
0.850000 	 0.175000 	 0.424087 
0.875000 	 0.175000 	 0.372741 
0.900000 	 0.175000 	 0.313241 
0.925000 	 0.175000 	 0.245245 
0.950000 	 0.175000 	 0.169149 
0.975000 	 0.175000 	 0.086464 
1.000000 	 0.175000 	 0.000000 
0.000000 	 0.200000 	 0.077031 
0.025000 	 0.200000 	 0.151034 
0.050000 	 0.200000 	 0.219726 
0.075000 	 0.200000 	 0.281824 
0.100000 	 0.200000 	 0.336905 
0.125000 	 0.200000 	 0.385131 
0.150000 	 0.200000 	 0.426987 
0.175000 	 0.200000 	 0.463101 
0.200000 	 0.200000 	 0.494127 
0.225000 	 0.200000 	 0.520684 
0.250000 	 0.200000 	 0.543327 
0.275000 	 0.200000 	 0.562536 
0.300000 	 0.200000 	 0.578720 
0.325000 	 0.200000 	 0.592220 
0.350000 	 0.200000 	 0.603314 
0.375000 	 0.200000 	 0.612227 
0.400000 	 0.200000 	 0.619137 
0.425000 	 0.200000 	 0.624178 
0.450000 	 0.200000 	 0.627449 
0.475000 	 0.200000 	 0.629012 
0.500000 	 0.200000 	 0.628895 
0.525000 	 0.200000 	 0.627096 
0.550000 	 0.200000 	 0.623580 
0.575000 	 0.200000 	 0.618279 
0.600000 	 0.200000 	 0.611091 
0.625000 	 0.200000 	 0.601872 
0.650000 	 0.200000 	 0.590439 
0.675000 	 0.200000 	 0.576559 
0.700000 	 0.200000 	 0.559945 
0.725000 	 0.200000 	 0.540252 
0.750000 	 0.200000 	 0.517068 
0.775000 	 0.200000 	 0.489917 
0.800000 	 0.200000 	 0.458261 
0.825000 	 0.200000 	 0.421522 
0.850000 	 0.200000 	 0.379117 
0.875000 	 0.200000 	 0.330537 
0.900000 	 0.200000 	 0.275460 
0.925000 	 0.200000 	 0.213921 
0.950000 	 0.200000 	 0.146507 
0.975000 	 0.200000 	 0.074520 
1.000000 	 0.200000 	 0.000000 
0.000000 	 0.225000 	 0.066869 
0.025000 	 0.225000 	 0.131684 
0.050000 	 0.225000 	 0.192769 
0.075000 	 0.225000 	 0.249022 
0.100000 	 0.225000 	 0.299893 
0.125000 	 0.225000 	 0.345275 
0.150000 	 0.225000 	 0.385347 
0.175000 	 0.225000 	 0.420460 
0.200000 	 0.225000 	 0.451036 
0.225000 	 0.225000 	 0.477517 
0.250000 	 0.225000 	 0.500322 
0.275000 	 0.225000 	 0.519835 
0.300000 	 0.225000 	 0.536394 
0.325000 	 0.225000 	 0.550289 
0.350000 	 0.225000 	 0.561765 
0.375000 	 0.225000 	 0.571022 
0.400000 	 0.225000 	 0.578222 
0.425000 	 0.225000 	 0.583488 
0.450000 	 0.225000 	 0.586912 
0.475000 	 0.225000 	 0.588550 
0.500000 	 0.225000 	 0.588432 
0.525000 	 0.225000 	 0.586554 
0.550000 	 0.225000 	 0.582885 
0.575000 	 0.225000 	 0.577361 
0.600000 	 0.225000 	 0.569889 
0.625000 	 0.225000 	 0.560338 
0.650000 	 0.225000 	 0.548544 
0.675000 	 0.225000 	 0.534302 
0.700000 	 0.225000 	 0.517363 
0.725000 	 0.225000 	 0.497437 
0.750000 	 0.225000 	 0.474191 
0.775000 	 0.225000 	 0.447252 
0.800000 	 0.225000 	 0.416222 
0.825000 	 0.225000 	 0.380700 
0.850000 	 0.225000 	 0.340323 
0.875000 	 0.225000 	 0.294830 
0.900000 	 0.225000 	 0.244142 
0.925000 	 0.225000 	 0.188474 
0.950000 	 0.225000 	 0.128438 
0.975000 	 0.225000 	 0.065110 
1.000000 	 0.225000 	 0.000000 
0.000000 	 0.250000 	 0.058763 
0.025000 	 0.250000 	 0.116063 
0.050000 	 0.250000 	 0.170647 
0.075000 	 0.250000 	 0.221601 
0.100000 	 0.250000 	 0.268373 
0.125000 	 0.250000 	 0.310728 
0.150000 	 0.250000 	 0.348669 
0.175000 	 0.250000 	 0.382356 
0.200000 	 0.250000 	 0.412043 
0.225000 	 0.250000 	 0.438026 
0.250000 	 0.250000 	 0.460610 
0.275000 	 0.250000 	 0.480089 
0.300000 	 0.250000 	 0.496733 
0.325000 	 0.250000 	 0.510780 
0.350000 	 0.250000 	 0.522436 
0.375000 	 0.250000 	 0.531877 
0.400000 	 0.250000 	 0.539242 
0.425000 	 0.250000 	 0.544644 
0.450000 	 0.250000 	 0.548161 
0.475000 	 0.250000 	 0.549849 
0.500000 	 0.250000 	 0.549731 
0.525000 	 0.250000 	 0.547807 
0.550000 	 0.250000 	 0.544047 
0.575000 	 0.250000 	 0.538395 
0.600000 	 0.250000 	 0.530767 
0.625000 	 0.250000 	 0.521051 
0.650000 	 0.250000 	 0.509101 
0.675000 	 0.250000 	 0.494742 
0.700000 	 0.250000 	 0.477769 
0.725000 	 0.250000 	 0.457945 
0.750000 	 0.250000 	 0.435009 
0.775000 	 0.250000 	 0.408679 
0.800000 	 0.250000 	 0.378675 
0.825000 	 0.250000 	 0.344733 
0.850000 	 0.250000 	 0.306648 
0.875000 	 0.250000 	 0.264318 
0.900000 	 0.250000 	 0.217804 
0.925000 	 0.250000 	 0.167394 
0.950000 	 0.250000 	 0.113661 
0.975000 	 0.250000 	 0.057482 
1.000000 	 0.250000 	 0.000000 
0.000000 	 0.275000 	 0.052120 
0.025000 	 0.275000 	 0.103158 
0.050000 	 0.275000 	 0.152156 
0.075000 	 0.275000 	 0.198363 
0.100000 	 0.275000 	 0.241272 
0.125000 	 0.275000 	 0.280598 
0.150000 	 0.275000 	 0.316245 
0.175000 	 0.275000 	 0.348254 
0.200000 	 0.275000 	 0.376756 
0.225000 	 0.275000 	 0.401936 
0.250000 	 0.275000 	 0.424007 
0.275000 	 0.275000 	 0.443183 
0.300000 	 0.275000 	 0.459671 
0.325000 	 0.275000 	 0.473663 
0.350000 	 0.275000 	 0.485327 
0.375000 	 0.275000 	 0.494810 
0.400000 	 0.275000 	 0.502230 
0.425000 	 0.275000 	 0.507685 
0.450000 	 0.275000 	 0.511245 
0.475000 	 0.275000 	 0.512955 
0.500000 	 0.275000 	 0.512840 
0.525000 	 0.275000 	 0.510897 
0.550000 	 0.275000 	 0.507103 
0.575000 	 0.275000 	 0.501407 
0.600000 	 0.275000 	 0.493738 
0.625000 	 0.275000 	 0.483999 
0.650000 	 0.275000 	 0.472067 
0.675000 	 0.275000 	 0.457800 
0.700000 	 0.275000 	 0.441029 
0.725000 	 0.275000 	 0.421569 
0.750000 	 0.275000 	 0.399221 
0.775000 	 0.275000 	 0.373783 
0.800000 	 0.275000 	 0.345066 
0.825000 	 0.275000 	 0.312911 
0.850000 	 0.275000 	 0.277220 
0.875000 	 0.275000 	 0.237992 
0.900000 	 0.275000 	 0.195361 
0.925000 	 0.275000 	 0.149638 
0.950000 	 0.275000 	 0.101332 
0.975000 	 0.275000 	 0.051158 
1.000000 	 0.275000 	 0.000000 
0.000000 	 0.300000 	 0.046561 
0.025000 	 0.300000 	 0.092295 
0.050000 	 0.300000 	 0.136455 
0.075000 	 0.300000 	 0.178425 
0.100000 	 0.300000 	 0.217753 
0.125000 	 0.300000 	 0.254148 
0.150000 	 0.300000 	 0.287462 
0.175000 	 0.300000 	 0.317661 
0.200000 	 0.300000 	 0.344792 
0.225000 	 0.300000 	 0.368959 
0.250000 	 0.300000 	 0.390300 
0.275000 	 0.300000 	 0.408965 
0.300000 	 0.300000 	 0.425109 
0.325000 	 0.300000 	 0.438876 
0.350000 	 0.300000 	 0.450403 
0.375000 	 0.300000 	 0.459807 
0.400000 	 0.300000 	 0.467188 
0.425000 	 0.300000 	 0.472625 
0.450000 	 0.300000 	 0.476180 
0.475000 	 0.300000 	 0.477891 
0.500000 	 0.300000 	 0.477779 
0.525000 	 0.300000 	 0.475843 
0.550000 	 0.300000 	 0.472063 
0.575000 	 0.300000 	 0.466396 
0.600000 	 0.300000 	 0.458782 
0.625000 	 0.300000 	 0.449141 
0.650000 	 0.300000 	 0.437374 
0.675000 	 0.300000 	 0.423363 
0.700000 	 0.300000 	 0.406980 
0.725000 	 0.300000 	 0.388081 
0.750000 	 0.300000 	 0.366524 
0.775000 	 0.300000 	 0.342170 
0.800000 	 0.300000 	 0.314898 
0.825000 	 0.300000 	 0.284625 
0.850000 	 0.300000 	 0.251329 
0.875000 	 0.300000 	 0.215069 
0.900000 	 0.300000 	 0.176013 
0.925000 	 0.300000 	 0.134465 
0.950000 	 0.300000 	 0.090871 
0.975000 	 0.300000 	 0.045816 
1.000000 	 0.300000 	 0.000000 
0.000000 	 0.325000 	 0.041827 
0.025000 	 0.325000 	 0.083008 
0.050000 	 0.325000 	 0.122945 
0.075000 	 0.325000 	 0.161130 
0.100000 	 0.325000 	 0.197169 
0.125000 	 0.325000 	 0.230782 
0.150000 	 0.325000 	 0.261797 
0.175000 	 0.325000 	 0.290137 
0.200000 	 0.325000 	 0.315793 
0.225000 	 0.325000 	 0.338812 
0.250000 	 0.325000 	 0.359272 
0.275000 	 0.325000 	 0.377273 
0.300000 	 0.325000 	 0.392924 
0.325000 	 0.325000 	 0.406334 
0.350000 	 0.325000 	 0.417605 
0.375000 	 0.325000 	 0.426831 
0.400000 	 0.325000 	 0.434091 
0.425000 	 0.325000 	 0.439451 
0.450000 	 0.325000 	 0.442961 
0.475000 	 0.325000 	 0.444654 
0.500000 	 0.325000 	 0.444546 
0.525000 	 0.325000 	 0.442638 
0.550000 	 0.325000 	 0.438912 
0.575000 	 0.325000 	 0.433334 
0.600000 	 0.325000 	 0.425856 
0.625000 	 0.325000 	 0.416413 
0.650000 	 0.325000 	 0.404925 
0.675000 	 0.325000 	 0.391303 
0.700000 	 0.325000 	 0.375447 
0.725000 	 0.325000 	 0.357256 
0.750000 	 0.325000 	 0.336628 
0.775000 	 0.325000 	 0.313475 
0.800000 	 0.325000 	 0.287731 
0.825000 	 0.325000 	 0.259366 
0.850000 	 0.325000 	 0.228405 
0.875000 	 0.325000 	 0.194941 
0.900000 	 0.325000 	 0.159159 
0.925000 	 0.325000 	 0.121339 
0.950000 	 0.325000 	 0.081870 
0.975000 	 0.325000 	 0.041237 
1.000000 	 0.325000 	 0.000000 
0.000000 	 0.350000 	 0.037741 
0.025000 	 0.350000 	 0.074964 
0.050000 	 0.350000 	 0.111186 
0.075000 	 0.350000 	 0.145984 
0.100000 	 0.350000 	 0.179013 
0.125000 	 0.350000 	 0.210014 
0.150000 	 0.350000 	 0.238810 
0.175000 	 0.350000 	 0.265298 
0.200000 	 0.350000 	 0.289435 
0.225000 	 0.350000 	 0.311225 
0.250000 	 0.350000 	 0.330705 
0.275000 	 0.350000 	 0.347934 
0.300000 	 0.350000 	 0.362984 
0.325000 	 0.350000 	 0.375933 
0.350000 	 0.350000 	 0.386856 
0.375000 	 0.350000 	 0.395823 
0.400000 	 0.350000 	 0.402898 
0.425000 	 0.350000 	 0.408131 
0.450000 	 0.350000 	 0.411562 
0.475000 	 0.350000 	 0.413220 
0.500000 	 0.350000 	 0.413117 
0.525000 	 0.350000 	 0.411253 
0.550000 	 0.350000 	 0.407615 
0.575000 	 0.350000 	 0.402177 
0.600000 	 0.350000 	 0.394899 
0.625000 	 0.350000 	 0.385732 
0.650000 	 0.350000 	 0.374614 
0.675000 	 0.350000 	 0.361478 
0.700000 	 0.350000 	 0.346254 
0.725000 	 0.350000 	 0.328868 
0.750000 	 0.350000 	 0.309258 
0.775000 	 0.350000 	 0.287373 
0.800000 	 0.350000 	 0.263186 
0.825000 	 0.350000 	 0.236704 
0.850000 	 0.350000 	 0.207983 
0.875000 	 0.350000 	 0.177135 
0.900000 	 0.350000 	 0.144342 
0.925000 	 0.350000 	 0.109864 
0.950000 	 0.350000 	 0.074035 
0.975000 	 0.350000 	 0.037261 
1.000000 	 0.350000 	 0.000000 
0.000000 	 0.375000 	 0.034173 
0.025000 	 0.375000 	 0.067923 
0.050000 	 0.375000 	 0.100854 
0.075000 	 0.375000 	 0.132608 
0.100000 	 0.375000 	 0.162886 
0.125000 	 0.375000 	 0.191452 
0.150000 	 0.375000 	 0.218133 
0.175000 	 0.375000 	 0.242813 
0.200000 	 0.375000 	 0.265427 
0.225000 	 0.375000 	 0.285951 
0.250000 	 0.375000 	 0.304391 
0.275000 	 0.375000 	 0.320776 
0.300000 	 0.375000 	 0.335150 
0.325000 	 0.375000 	 0.347562 
0.350000 	 0.375000 	 0.358065 
0.375000 	 0.375000 	 0.366712 
0.400000 	 0.375000 	 0.373549 
0.425000 	 0.375000 	 0.378615 
0.450000 	 0.375000 	 0.381942 
0.475000 	 0.375000 	 0.383550 
0.500000 	 0.375000 	 0.383451 
0.525000 	 0.375000 	 0.381645 
0.550000 	 0.375000 	 0.378123 
0.575000 	 0.375000 	 0.372862 
0.600000 	 0.375000 	 0.365835 
0.625000 	 0.375000 	 0.357004 
0.650000 	 0.375000 	 0.346323 
0.675000 	 0.375000 	 0.333746 
0.700000 	 0.375000 	 0.319223 
0.725000 	 0.375000 	 0.302709 
0.750000 	 0.375000 	 0.284167 
0.775000 	 0.375000 	 0.263576 
0.800000 	 0.375000 	 0.240938 
0.825000 	 0.375000 	 0.216285 
0.850000 	 0.375000 	 0.189689 
0.875000 	 0.375000 	 0.161273 
0.900000 	 0.375000 	 0.131212 
0.925000 	 0.375000 	 0.099739 
0.950000 	 0.375000 	 0.067145 
0.975000 	 0.375000 	 0.033772 
1.000000 	 0.375000 	 0.000000 
0.000000 	 0.400000 	 0.031027 
0.025000 	 0.400000 	 0.061704 
0.050000 	 0.400000 	 0.091698 
0.075000 	 0.400000 	 0.120708 
0.100000 	 0.400000 	 0.148472 
0.125000 	 0.400000 	 0.174777 
0.150000 	 0.400000 	 0.199458 
0.175000 	 0.400000 	 0.222395 
0.200000 	 0.400000 	 0.243511 
0.225000 	 0.400000 	 0.262763 
0.250000 	 0.400000 	 0.280135 
0.275000 	 0.400000 	 0.295634 
0.300000 	 0.400000 	 0.309279 
0.325000 	 0.400000 	 0.321102 
0.350000 	 0.400000 	 0.331135 
0.375000 	 0.400000 	 0.339415 
0.400000 	 0.400000 	 0.345975 
0.425000 	 0.400000 	 0.350843 
0.450000 	 0.400000 	 0.354043 
0.475000 	 0.400000 	 0.355591 
0.500000 	 0.400000 	 0.355496 
0.525000 	 0.400000 	 0.353758 
0.550000 	 0.400000 	 0.350371 
0.575000 	 0.400000 	 0.345318 
0.600000 	 0.400000 	 0.338580 
0.625000 	 0.400000 	 0.330128 
0.650000 	 0.400000 	 0.319933 
0.675000 	 0.400000 	 0.307962 
0.700000 	 0.400000 	 0.294186 
0.725000 	 0.400000 	 0.278579 
0.750000 	 0.400000 	 0.261126 
0.775000 	 0.400000 	 0.241828 
0.800000 	 0.400000 	 0.220706 
0.825000 	 0.400000 	 0.197808 
0.850000 	 0.400000 	 0.173219 
0.875000 	 0.400000 	 0.147059 
0.900000 	 0.400000 	 0.119494 
0.925000 	 0.400000 	 0.090735 
0.950000 	 0.400000 	 0.061035 
0.975000 	 0.400000 	 0.030684 
1.000000 	 0.400000 	 0.000000 
0.000000 	 0.425000 	 0.028230 
0.025000 	 0.425000 	 0.056167 
0.050000 	 0.425000 	 0.083528 
0.075000 	 0.425000 	 0.110055 
0.100000 	 0.425000 	 0.135520 
0.125000 	 0.425000 	 0.159729 
0.150000 	 0.425000 	 0.182529 
0.175000 	 0.425000 	 0.203801 
0.200000 	 0.425000 	 0.223462 
0.225000 	 0.425000 	 0.241457 
0.250000 	 0.425000 	 0.257755 
0.275000 	 0.425000 	 0.272347 
0.300000 	 0.425000 	 0.285235 
0.325000 	 0.425000 	 0.296434 
0.350000 	 0.425000 	 0.305962 
0.375000 	 0.425000 	 0.313842 
0.400000 	 0.425000 	 0.320095 
0.425000 	 0.425000 	 0.324743 
0.450000 	 0.425000 	 0.327800 
0.475000 	 0.425000 	 0.329280 
0.500000 	 0.425000 	 0.329188 
0.525000 	 0.425000 	 0.327525 
0.550000 	 0.425000 	 0.324287 
0.575000 	 0.425000 	 0.319464 
0.600000 	 0.425000 	 0.313040 
0.625000 	 0.425000 	 0.304999 
0.650000 	 0.425000 	 0.295321 
0.675000 	 0.425000 	 0.283987 
0.700000 	 0.425000 	 0.270983 
0.725000 	 0.425000 	 0.256298 
0.750000 	 0.425000 	 0.239934 
0.775000 	 0.425000 	 0.221906 
0.800000 	 0.425000 	 0.202251 
0.825000 	 0.425000 	 0.181026 
0.850000 	 0.425000 	 0.158319 
0.875000 	 0.425000 	 0.134250 
0.900000 	 0.425000 	 0.108971 
0.925000 	 0.425000 	 0.082673 
0.950000 	 0.425000 	 0.055575 
0.975000 	 0.425000 	 0.027928 
1.000000 	 0.425000 	 0.000000 
0.000000 	 0.450000 	 0.025728 
0.025000 	 0.450000 	 0.051207 
0.050000 	 0.450000 	 0.076194 
0.075000 	 0.450000 	 0.100467 
0.100000 	 0.450000 	 0.123824 
0.125000 	 0.450000 	 0.146093 
0.150000 	 0.450000 	 0.167130 
0.175000 	 0.450000 	 0.186822 
0.200000 	 0.450000 	 0.205082 
0.225000 	 0.450000 	 0.221850 
0.250000 	 0.450000 	 0.237086 
0.275000 	 0.450000 	 0.250767 
0.300000 	 0.450000 	 0.262885 
0.325000 	 0.450000 	 0.273440 
0.350000 	 0.450000 	 0.282441 
0.375000 	 0.450000 	 0.289898 
0.400000 	 0.450000 	 0.295826 
0.425000 	 0.450000 	 0.300236 
0.450000 	 0.450000 	 0.303139 
0.475000 	 0.450000 	 0.304543 
0.500000 	 0.450000 	 0.304454 
0.525000 	 0.450000 	 0.302871 
0.550000 	 0.450000 	 0.299793 
0.575000 	 0.450000 	 0.295213 
0.600000 	 0.450000 	 0.289122 
0.625000 	 0.450000 	 0.281510 
0.650000 	 0.450000 	 0.272368 
0.675000 	 0.450000 	 0.261686 
0.700000 	 0.450000 	 0.249462 
0.725000 	 0.450000 	 0.235698 
0.750000 	 0.450000 	 0.220407 
0.775000 	 0.450000 	 0.203615 
0.800000 	 0.450000 	 0.185368 
0.825000 	 0.450000 	 0.165728 
0.850000 	 0.450000 	 0.144784 
0.875000 	 0.450000 	 0.122651 
0.900000 	 0.450000 	 0.099470 
0.925000 	 0.450000 	 0.075410 
0.950000 	 0.450000 	 0.050666 
0.975000 	 0.450000 	 0.025452 
1.000000 	 0.450000 	 0.000000 
0.000000 	 0.475000 	 0.023477 
0.025000 	 0.475000 	 0.046738 
0.050000 	 0.475000 	 0.069576 
0.075000 	 0.475000 	 0.091795 
0.100000 	 0.475000 	 0.113218 
0.125000 	 0.475000 	 0.133690 
0.150000 	 0.475000 	 0.153078 
0.175000 	 0.475000 	 0.171276 
0.200000 	 0.475000 	 0.188197 
0.225000 	 0.475000 	 0.203778 
0.250000 	 0.475000 	 0.217974 
0.275000 	 0.475000 	 0.230754 
0.300000 	 0.475000 	 0.242100 
0.325000 	 0.475000 	 0.252005 
0.350000 	 0.475000 	 0.260467 
0.375000 	 0.475000 	 0.267489 
0.400000 	 0.475000 	 0.273078 
0.425000 	 0.475000 	 0.277239 
0.450000 	 0.475000 	 0.279980 
0.475000 	 0.475000 	 0.281304 
0.500000 	 0.475000 	 0.281216 
0.525000 	 0.475000 	 0.279717 
0.550000 	 0.475000 	 0.276804 
0.575000 	 0.475000 	 0.272476 
0.600000 	 0.475000 	 0.266728 
0.625000 	 0.475000 	 0.259556 
0.650000 	 0.475000 	 0.250957 
0.675000 	 0.475000 	 0.240932 
0.700000 	 0.475000 	 0.229485 
0.725000 	 0.475000 	 0.216628 
0.750000 	 0.475000 	 0.202382 
0.775000 	 0.475000 	 0.186783 
0.800000 	 0.475000 	 0.169878 
0.825000 	 0.475000 	 0.151735 
0.850000 	 0.475000 	 0.132440 
0.875000 	 0.475000 	 0.112101 
0.900000 	 0.475000 	 0.090848 
0.925000 	 0.475000 	 0.068833 
0.950000 	 0.475000 	 0.046227 
0.975000 	 0.475000 	 0.023216 
1.000000 	 0.475000 	 0.000000 
0.000000 	 0.500000 	 0.021440 
0.025000 	 0.500000 	 0.042693 
0.050000 	 0.500000 	 0.063577 
0.075000 	 0.500000 	 0.083920 
0.100000 	 0.500000 	 0.103565 
0.125000 	 0.500000 	 0.122372 
0.150000 	 0.500000 	 0.140220 
0.175000 	 0.500000 	 0.157008 
0.200000 	 0.500000 	 0.172654 
0.225000 	 0.500000 	 0.187095 
0.250000 	 0.500000 	 0.200280 
0.275000 	 0.500000 	 0.212177 
0.300000 	 0.500000 	 0.222760 
0.325000 	 0.500000 	 0.232015 
0.350000 	 0.500000 	 0.239935 
0.375000 	 0.500000 	 0.246517 
0.400000 	 0.500000 	 0.251760 
0.425000 	 0.500000 	 0.255667 
0.450000 	 0.500000 	 0.258240 
0.475000 	 0.500000 	 0.259482 
0.500000 	 0.500000 	 0.259395 
0.525000 	 0.500000 	 0.257979 
0.550000 	 0.500000 	 0.255235 
0.575000 	 0.500000 	 0.251162 
0.600000 	 0.500000 	 0.245761 
0.625000 	 0.500000 	 0.239031 
0.650000 	 0.500000 	 0.230976 
0.675000 	 0.500000 	 0.221602 
0.700000 	 0.500000 	 0.210920 
0.725000 	 0.500000 	 0.198948 
0.750000 	 0.500000 	 0.185715 
0.775000 	 0.500000 	 0.171258 
0.800000 	 0.500000 	 0.155629 
0.825000 	 0.500000 	 0.138896 
0.850000 	 0.500000 	 0.121142 
0.875000 	 0.500000 	 0.102467 
0.900000 	 0.500000 	 0.082990 
0.925000 	 0.500000 	 0.062848 
0.950000 	 0.500000 	 0.042192 
0.975000 	 0.500000 	 0.021185 
1.000000 	 0.500000 	 0.000000 
0.000000 	 0.525000 	 0.019592 
0.025000 	 0.525000 	 0.039019 
0.050000 	 0.525000 	 0.058121 
0.075000 	 0.525000 	 0.076745 
0.100000 	 0.525000 	 0.094751 
0.125000 	 0.525000 	 0.112014 
0.150000 	 0.525000 	 0.128423 
0.175000 	 0.525000 	 0.143885 
0.200000 	 0.525000 	 0.158321 
0.225000 	 0.525000 	 0.171669 
0.250000 	 0.525000 	 0.183880 
0.275000 	 0.525000 	 0.194916 
0.300000 	 0.525000 	 0.204751 
0.325000 	 0.525000 	 0.213365 
0.350000 	 0.525000 	 0.220746 
0.375000 	 0.525000 	 0.226887 
0.400000 	 0.525000 	 0.231783 
0.425000 	 0.525000 	 0.235433 
0.450000 	 0.525000 	 0.237836 
0.475000 	 0.525000 	 0.238993 
0.500000 	 0.525000 	 0.238905 
0.525000 	 0.525000 	 0.237573 
0.550000 	 0.525000 	 0.234998 
0.575000 	 0.525000 	 0.231181 
0.600000 	 0.525000 	 0.226126 
0.625000 	 0.525000 	 0.219835 
0.650000 	 0.525000 	 0.212317 
0.675000 	 0.525000 	 0.203583 
0.700000 	 0.525000 	 0.193647 
0.725000 	 0.525000 	 0.182534 
0.750000 	 0.525000 	 0.170273 
0.775000 	 0.525000 	 0.156907 
0.800000 	 0.525000 	 0.142487 
0.825000 	 0.525000 	 0.127080 
0.850000 	 0.525000 	 0.110765 
0.875000 	 0.525000 	 0.093635 
0.900000 	 0.525000 	 0.075799 
0.925000 	 0.525000 	 0.057378 
0.950000 	 0.525000 	 0.038508 
0.975000 	 0.525000 	 0.019331 
1.000000 	 0.525000 	 0.000000 
0.000000 	 0.550000 	 0.017909 
0.025000 	 0.550000 	 0.035671 
0.050000 	 0.550000 	 0.053143 
0.075000 	 0.550000 	 0.070189 
0.100000 	 0.550000 	 0.086683 